ITEM: TIMESTEP
30000000
ITEM: NUMBER OF ATOMS
7996
ITEM: BOX BOUNDS pp ff ff
0 1.1
0 0.18
0 0.08
ITEM: ATOMS id type x y z radius vx vy vz fx fy fz omegax omegay omegaz c_3 c_5[1] c_5[2] c_5[3] c_5[4] c_6 c_7 
5379 1 0.00709554 0.0156259 0.00468633 0.00470149 -0.113357 -0.0388634 0.0250629 189.897 376.255 -0.258454 -16.4769 38.2044 3.12318 3 0.394623 0.003756 -0.014793 0.394918 9.71506e-09 9.46052e-09 
5425 1 0.0196958 0.0171901 0.00703631 0.0071489 -0.0641996 -0.0357348 0.00167293 1170.72 2037.81 -62.128 12.157 1.61232 -1.94002 4 0.399476 0.00661503 -0.000218328 0.399531 6.99321e-09 1.19861e-08 
5250 1 0.0317315 0.0118896 0.00604976 0.00616294 -0.051311 -0.0338107 0.00986993 -30652.7 -56898.3 -75.7897 10.3728 -22.7982 4.27402 4 0.387099 -0.000472413 -5.9999e-05 0.387099 1.39454e-08 5.50697e-09 
5243 1 0.0445801 0.00957131 0.0070527 0.0070758 -0.0316127 -0.101169 0.0207105 14082.3 -24760 13.6528 -13.6703 14.3793 -9.71299 3 0.364231 -0.0125202 -0.000182271 0.364446 2.10281e-08 2.50964e-08 
5074 1 0.0547643 0.0176949 0.00603475 0.00606633 -0.0869433 -0.0946745 0.0474027 17.2314 458.631 -11.9142 4.3381 -24.817 3.03703 4 0.358552 -0.00824611 -0.00951849 0.358773 1.28523e-08 2.54498e-08 
5321 1 0.0625719 0.010104 0.00488765 0.00490093 -0.19165 -0.00694204 -0.0746716 -13664.1 -25484.4 -6.64804 4.5822 -16.4082 -33.6637 3 0.405504 -0.00644657 -9.22475e-07 0.405555 9.77816e-09 3.02818e-08 
5248 1 0.0345895 0.0240829 0.00643901 0.00647634 -0.228929 -0.0465429 0.00970741 377.266 790.961 -1.18863 -8.48148 39.4794 19.4868 3 0.311354 0.00245794 6.66606e-07 0.311363 5.56449e-08 9.01963e-08 
5446 1 0.0658984 0.0190414 0.00470268 0.00474953 -0.181818 -0.224661 0.108172 286.389 566.464 -14.9986 2.62794 52.2179 29.3238 3 0.39848 0.00707665 2.97863e-06 0.398543 2.11003e-08 6.19711e-08 
6290 1 0.00990788 0.0306207 0.00465206 0.00470429 -0.126686 -0.0506512 0.00736978 -1.04323 1.96561 0.32671 0.59951 5.96606 9.52912 3 0.262302 -0.00023341 -0.0121675 0.262584 7.09513e-10 1.18049e-08 
6354 1 0.0208371 0.0305105 0.00635337 0.00639243 -0.0978217 -0.0164736 0.00110277 4.05952 -23.176 10.2455 -15.3839 -1.31614 6.20834 5 0.266279 0.00505821 1.99912e-06 0.266327 7.18179e-09 1.56143e-08 
5084 1 0.0376562 0.0353361 0.00531084 0.00536074 -0.244626 -0.0886529 -0.0549698 0.759773 -10.6209 -0.409343 -2.50125 -37.485 -20.0079 3 0.331105 0.0144635 -0.0129637 0.331674 1.94862e-08 6.61747e-08 
5337 1 0.0485282 0.0276827 0.00560937 0.00574055 -0.0963735 -0.0582333 0.00202842 2.99764 -2.00038 0.667371 8.76674 6.06114 -21.0116 3 0.33709 0.00420948 -0.00309705 0.33713 8.40702e-09 1.45728e-08 
6200 1 0.0605491 0.028256 0.00602655 0.00604884 -0.203305 0.0489602 -0.0194609 -3.17352 -21.3091 2.87012 -23.249 -10.2446 -2.59188 5 0.325066 0.00880683 -0.00174305 0.32519 1.28306e-08 5.92921e-08 
6506 1 0.0160484 0.0424092 0.0064533 0.00652666 -0.0590357 0.00638368 -0.0446028 1.06096 0.738604 0.555095 18.4194 -11.646 -9.34835 6 0.242783 0.0113863 -2.2506e-05 0.243049 1.61784e-08 9.31331e-09 
6186 1 0.0278642 0.0398345 0.0053121 0.00545198 -0.184661 -0.014786 -0.0280143 -0.307854 0.113461 0.855093 15.5574 18.5561 -0.519191 5 0.281382 0.0229212 -9.27774e-05 0.282315 6.8652e-09 3.45514e-08 
6325 1 0.0582877 0.0387929 0.00479334 0.00493234 -0.229115 0.0395842 -0.0356411 -1.76541 3.01275 0.333435 35.4883 25.274 -24.5683 4 0.286168 0.021911 -7.39871e-05 0.287005 1.77432e-08 4.03256e-08 
6380 1 0.00478586 0.0481643 0.00613525 0.00619418 0.0109583 0.208777 0.0202511 1.56023 0.337405 -1.2618 84.005 -17.0541 -10.81 4 0.243199 0.0121491 -3.07778e-06 0.243502 1.65363e-07 6.36831e-08 
6045 1 0.0226987 0.0529646 0.00590179 0.00600284 -0.0621859 -0.00470119 0.000726474 0.984002 -0.42323 1.17897 -7.62555 -11.642 3.70276 5 0.196451 0.016808 -3.69141e-05 0.197168 3.92733e-09 5.11028e-09 
6453 1 0.034094 0.0474498 0.00445636 0.00456464 -0.202053 -0.0891002 -0.000345032 -0.434292 0.438746 0.474913 4.29344 0.409907 -8.57802 4 0.305588 0.0352286 -6.8026e-05 0.307612 4.43818e-10 2.81695e-08 
5077 1 0.0453617 0.0451271 0.00732461 0.00737707 -0.199721 -0.129804 -0.00684362 -0.493473 -1.32181 -1.73568 -7.76267 5.29419 2.07785 5 0.35911 0.0361652 -2.21661e-05 0.360927 4.91554e-09 1.38465e-07 
7398 1 0.0584185 0.0502304 0.00671277 0.00683153 -0.247373 -0.0268406 -0.0585408 -2.06367 -0.0061856 0.934497 -14.8507 -6.57917 19.9304 7 0.155202 0.0142639 -6.0695e-05 0.155856 2.38968e-08 1.26531e-07 
6351 1 0.0114559 0.0593462 0.00702981 0.00692777 0.175133 0.0581158 0.304219 1.91864 -0.288776 1.10831 73.7285 195.741 -3.3337 3 0.216202 0.031867 0.000140597 0.218538 1.69659e-06 2.55661e-07 
6111 1 0.0340078 0.0581608 0.00672061 0.00651767 -0.0744162 -0.0863741 -0.0373612 -2.98852 1.67784 1.17955 -7.52141 7.69996 -16.6314 4 0.194252 0.0252004 0.000231582 0.19588 1.12145e-08 2.42058e-08 
7007 1 0.0480217 0.0599972 0.00737928 0.00747453 -0.418438 -0.0730844 0.0101558 0.495792 0.498957 -0.69309 -11.8755 48.6691 6.30662 5 0.133967 0.0136844 -0.000215554 0.134664 1.44506e-07 4.57897e-07 
7309 1 0.0112765 0.0718594 0.00564588 0.00571535 0.00873853 -0.0274633 0.00720904 -0.243073 -0.533202 0.270894 -135.322 -21.9609 13.679 4 0.160913 0.0291239 -7.57012e-06 0.163527 2.81227e-07 1.00076e-09 
7494 1 0.022427 0.0641239 0.00518831 0.00521632 0.0819352 0.0726511 -0.0750996 0.414712 0.430234 0.326018 1.41687 -122.157 -14.0332 4 0.154806 0.0276012 2.59993e-05 0.157247 1.41882e-07 1.51999e-08 
7486 1 0.035643 0.0694313 0.00507976 0.00511589 -0.265328 -0.0219858 0.0430503 -2.09994 0.776964 -0.521487 37.9547 52.164 48.8806 3 0.140251 0.0234015 -2.83838e-05 0.14219 5.57733e-08 5.91517e-08 
7135 1 0.0595144 0.0649903 0.00528217 0.00526508 -0.421808 -0.14817 -0.0800997 -0.172498 0.882956 0.363276 9.75703 -57.1301 -26.9613 2 0.134598 0.0247487 4.70326e-05 0.136854 4.01638e-08 1.82875e-07 
7432 1 0.0227503 0.0756183 0.00714618 0.00649992 -0.0328632 0.0975704 0.0475504 -0.629737 0.779535 0.470409 11.1456 -23.6606 2.84404 5 0.132812 0.0396346 0.000251767 0.1386 1.95097e-08 2.14514e-08 
7074 1 0.0349872 0.080951 0.00747656 0.0067864 -0.223664 -0.00968767 0.0833257 -0.970227 0.671194 0.481765 -25.2755 -5.40013 -33.6252 5 0.114703 0.0172242 0.000713595 0.115991 6.29019e-08 1.08324e-07 
7379 1 0.0462043 0.0736256 0.00628332 0.00635218 -0.273152 -0.000570641 -0.033446 -1.82725 0.468237 0.206457 2.07506 -12.0144 -32.5945 5 0.119735 0.021446 2.05176e-06 0.121641 3.04295e-08 1.17896e-07 
7060 1 0.0645761 0.0748826 0.00578738 0.00589453 -0.2636 -0.186481 -0.0204753 0.470379 0.0440399 0.0670016 -19.0854 11.675 -3.92458 4 0.129139 0.0312267 -0.000456685 0.132862 8.92032e-09 1.30217e-07 
7483 1 0.0120867 0.08445 0.00726459 0.00706368 -0.0822112 0.0441678 -0.236202 -1.21965 -2.04964 -2.50927 68.0592 -37.2299 -10.1762 4 0.128272 0.0352096 0.000248727 0.133017 2.61542e-07 1.38075e-07 
7267 1 0.0244497 0.0876852 0.00581518 0.00588022 -0.122675 0.0857307 -0.00119747 -0.937422 0.410506 -0.315139 -19.912 17.8895 12.4539 6 0.12127 0.0339924 9.38043e-06 0.125944 1.48871e-08 2.76626e-08 
7154 1 0.0475673 0.0856093 0.0057301 0.00574928 -0.253102 0.00132518 0.00123638 0.429907 -1.14974 -0.0401108 -9.50518 -47.9934 29.0937 4 0.111501 0.0241998 2.16178e-06 0.114097 4.94483e-08 7.39456e-08 
7003 1 0.0576668 0.0845036 0.00448757 0.00450035 -0.320265 0.0914417 0.0293523 0.40111 -1.81051 -0.403241 59.1443 50.1021 -22.9563 3 0.117017 0.0320913 1.22173e-05 0.121338 2.93097e-08 6.18885e-08 
7210 1 0.0683465 0.0868488 0.00657881 0.00664956 -0.281212 -0.0576722 -0.0136732 0.0207902 -1.40087 -1.13389 9.3707 -17.4038 -3.99146 6 0.114848 0.0122719 -3.92989e-05 0.115501 1.28435e-08 1.47496e-07 
5380 1 0.0110549 0.00764652 0.0120571 0.00687944 -0.0367286 -0.00152229 -0.00859512 -48784.2 -90888.6 11.0069 -1.07023 8.27432 -7.95353 5 0.416041 -9.57083e-05 0.00522737 0.416073 4.97396e-09 2.8183e-09 
5175 1 0.037244 0.015429 0.0152531 0.00523189 -0.0703218 -0.0604122 0.0526861 606.181 2315.42 -33.4337 -5.80917 25.2801 -13.6052 5 0.412243 0.0095147 -0.00241212 0.41236 8.17073e-09 9.89043e-09 
5117 1 0.0627586 0.010701 0.0165393 0.00555234 -0.537322 -0.0180005 0.112254 -20945.9 -38921.2 -17.4095 40.5651 66.7348 -16.9891 4 0.430042 0.000409717 0.0110285 0.430184 8.18917e-08 3.13597e-07 
5517 1 0.00540842 0.0237472 0.0132245 0.00722272 -0.0616322 -0.0424902 -0.00705566 16.3011 -37.8316 -16.6954 0.798373 -10.6337 2.4477 6 0.283996 -0.0113302 0.00602121 0.284286 5.71653e-09 1.29388e-08 
5367 1 0.044163 0.0237192 0.0152925 0.00575438 -0.0866618 -0.106368 -0.0352752 4.08266 -99.5148 10.6443 -1.55711 -5.46246 12.3535 6 0.389183 0.0172383 -0.00897444 0.389668 2.83386e-09 2.32261e-08 
5180 1 0.0638626 0.0213242 0.0143896 0.005404 0.00459391 -0.121307 0.00413825 263.929 491.427 31.6288 67.0211 39.0955 -61.4291 4 0.328933 -0.00999668 -0.0234968 0.329923 1.09659e-07 1.41418e-08 
6232 1 0.0298887 0.0338959 0.0140033 0.00540129 -0.10967 -0.0550817 -0.0167172 1.50725 -4.84829 5.95466 -9.41546 4.54827 -6.45525 4 0.238625 -0.00731227 -0.00601402 0.238813 1.68656e-09 1.46826e-08 
5370 1 0.0414172 0.0356809 0.0168991 0.00671798 -0.124816 -0.123081 -0.0185303 -1.911 1.99063 -0.737502 7.61814 1.32728 -4.94438 7 0.323654 0.00679563 -0.00219141 0.323733 2.8006e-09 5.72178e-08 
6202 1 0.0534125 0.0346505 0.0133759 0.0059142 -0.141468 -0.0748656 -0.00992821 -5.10949 1.74542 0.692164 -6.04996 -3.48752 13.6668 5 0.315787 0.00862746 -0.00482253 0.315941 4.1407e-09 3.23116e-08 
5080 1 0.0645103 0.0316673 0.0152765 0.00455618 0.196714 -0.310423 -0.0395028 0 0 0 -97.2403 -16.2318 100.797 0 0.376748 0.0121516 -0.000531211 0.376944 9.4824e-08 7.8482e-08 
5397 1 0.00770676 0.0364276 0.012841 0.00561325 -0.127606 0.0596042 -0.041364 -1.33269 0.851187 -0.881376 -21.1864 7.885 -12.2843 3 0.333114 0.024533 0.000691363 0.334017 8.96199e-09 2.31464e-08 
6378 1 0.0118374 0.0494113 0.0169536 0.00684031 -0.050367 -0.0909003 0.0238269 0.439841 1.60935 0.392986 -9.48271 1.94478 -4.41915 6 0.225761 0.0187164 0.000366231 0.226536 4.11973e-09 2.20976e-08 
5141 1 0.0251449 0.0452916 0.0162815 0.00723103 -0.0859801 -0.0663213 0.0213089 -1.32959 -1.55732 2.08789 1.2024 3.56869 3.75043 10 0.290214 0.0238708 -0.0138831 0.291525 1.35672e-09 2.81205e-08 
6344 1 0.0357982 0.0490317 0.0132418 0.00461882 -0.15315 -0.0611785 -0.0200378 0.322252 -0.24552 0.402028 -14.6388 3.21639 -1.32425 5 0.1638 0.00924185 -4.54647e-05 0.164061 1.15619e-09 1.65176e-08 
7189 1 0.0433769 0.0535427 0.0169308 0.00508166 -0.18106 -0.0897646 0.0747786 0.160548 -0.299339 -0.0256756 23.6713 -17.1695 -0.269819 4 0.188424 0.0228043 -0.00146273 0.189805 7.0406e-09 3.70077e-08 
7377 1 0.0204332 0.0583544 0.0159633 0.0057337 -0.172306 -0.0245076 -0.0159097 -0.553904 0.629118 0.0375145 8.87671 8.38113 27.236 5 0.161533 0.0203372 0.00445665 0.162869 1.34119e-08 3.49684e-08 
7111 1 0.0393262 0.0625947 0.0152773 0.00455024 -0.141207 -0.0898026 -0.0653087 -0.500524 0.421232 0.232878 -33.457 -44.9933 -20.7753 4 0.151967 0.0305108 -0.0106331 0.155364 1.69439e-08 1.84649e-08 
7539 1 0.0632596 0.058907 0.0122339 0.00466508 -0.3101 -0.016524 -0.0889207 0.748043 0.920738 -0.501368 14.441 13.1081 -14.9133 4 0.144095 0.0163815 -0.00569263 0.145135 3.23569e-09 6.43419e-08 
6267 1 0.00781339 0.0677025 0.0142561 0.00453766 -0.0121793 0.288083 0.0974514 -0.0787711 0.350263 -0.142459 60.0339 -13.7725 38.7502 3 0.158811 0.0311235 0.000571419 0.161833 2.47498e-08 5.257e-08 
7061 1 0.028659 0.0670044 0.0145713 0.00641436 -0.206733 -0.0359365 0.0174797 -1.04001 0.330689 -0.229094 8.05207 6.76939 -25.6573 6 0.137794 0.0230152 -0.00260339 0.139727 2.02855e-08 7.10669e-08 
7533 1 0.0533623 0.0678708 0.0149113 0.00474036 -0.21013 -0.0958363 -0.0775303 -0.158939 0.271417 0.00970689 27.2758 -2.12403 -4.29391 4 0.125822 0.022976 0.000397002 0.127903 4.45987e-09 3.83984e-08 
7403 1 0.0646111 0.0691299 0.0170974 0.00685962 -0.189628 -0.102878 -0.0323576 -0.882761 -0.496041 -0.181341 4.6856 3.69317 3.46178 6 0.128523 0.01648 0.00185274 0.129588 1.7556e-09 9.32973e-08 
7123 1 0.0390377 0.0726744 0.0156896 0.00559457 -0.181875 -0.13144 -0.0147863 -0.578071 0.55216 0.216264 44.8175 32.0677 19.648 5 0.136259 0.0267878 0.00157742 0.138876 4.55778e-08 5.37872e-08 
7055 1 0.0556238 0.0783128 0.0129582 0.00619985 -0.224248 -0.106947 -0.00447962 0.691875 -0.121124 0.294983 -5.42245 0.164704 5.07579 8 0.118984 0.0128522 -0.00464923 0.119766 1.22832e-09 8.93719e-08 
7254 1 0.0659401 0.0802329 0.0151744 0.00453955 -0.282728 -0.0814739 -0.0552159 0.275439 -0.286412 -0.334766 -5.16506 17.3692 9.78764 4 0.121586 0.00938454 0.00268433 0.121977 1.98663e-09 5.09225e-08 
7259 1 0.0253626 0.0831097 0.0158717 0.00521224 -0.111395 -0.0434561 0.0369675 -0.0488562 -0.686677 -0.935823 23.7197 0.274051 4.01736 4 0.109989 0.0175582 -0.00167155 0.111394 5.40996e-09 1.3472e-08 
5062 1 0.0413048 0.00675244 0.0210833 0.0061635 0.0206525 0.00550952 0.0268835 -17836.7 -104925 33.3975 -17.6742 3.41946 0.756723 4 0.400965 -0.00733558 0.00344503 0.401047 7.01553e-09 1.67755e-09 
5326 1 0.00405958 0.0134903 0.0187634 0.00455096 0.0303092 0.0175179 0.0378377 367.388 742.187 21.0914 -15.4296 24.3611 21.6474 5 0.410172 0.00778317 0.000770674 0.410247 6.1663e-09 1.52122e-09 
5552 1 0.0206321 0.0114208 0.0193397 0.00582219 0.0293885 -0.0478721 0.00849186 8094.45 -13015.1 9.05389 9.3664 -1.5331 8.92198 4 0.388128 0.000892647 -0.00880026 0.388229 2.75792e-09 3.86889e-09 
5197 1 0.0310733 0.0118073 0.024039 0.0056815 -0.0474349 -0.0264728 0.0136224 -11911.5 -21354.9 10.9283 4.65318 0.84396 2.75054 4 0.338569 -0.0104587 -0.00342454 0.338748 4.30464e-10 3.49369e-09 
5511 1 0.0418866 0.0178641 0.0243243 0.0052513 -0.0351058 -0.0902977 -0.0101906 -11.4908 -44.8703 -10.3095 -10.2645 -6.61113 23.8157 4 0.390503 0.0100264 -0.0102274 0.390765 6.94894e-09 8.3468e-09 
5436 1 0.0512696 0.014029 0.018002 0.00660979 -0.0338778 -0.0269615 -0.0660676 404.195 1940.94 -39.135 2.92377 -4.9476 -3.66643 7 0.398415 -0.000782822 0.00252527 0.398424 1.42438e-09 1.09439e-08 
5349 1 0.00241623 0.0212105 0.0264826 0.00659454 -0.0182025 -0.0490166 0.0227849 389.113 707.059 -39.8722 14.0843 -8.37225 0.921318 7 0.344588 -0.00655682 0.0095251 0.344782 8.16005e-09 5.66642e-09 
5387 1 0.0155679 0.0217243 0.0190903 0.00470301 -0.142262 -0.157401 0.0545264 -0.645082 -1.47412 -0.955568 38.7608 -0.5989 -1.35697 2 0.312155 -0.0144112 -0.0146093 0.312829 8.41044e-09 3.03185e-08 
5079 1 0.0273712 0.0223456 0.0178368 0.00720423 -0.10597 -0.0513108 0.0712821 94.4217 517.995 -8.19852 -1.74224 -9.56635 9.74325 9 0.34727 0.00199813 -0.00684837 0.347343 8.93351e-09 4.30212e-08 
5132 1 0.0542612 0.0255644 0.0202655 0.00560862 -0.0991228 0.015013 -0.00897906 -1.33138 -12.6799 4.64192 9.21068 -15.8909 5.88302 4 0.399456 0.0191816 0.0146913 0.400186 5.01536e-09 1.08565e-08 
5290 1 0.00576133 0.0339935 0.0248375 0.00683956 -0.0634991 0.0499946 0.0117335 5.36631 -13.6039 5.18462 10.4781 9.62671 -2.91255 5 0.339559 0.0164135 0.00554225 0.340001 7.67064e-09 1.29604e-08 
6275 1 0.018329 0.0331741 0.0192164 0.00704192 -0.122414 0.00103175 0.00832503 -2.32624 -4.1867 0.914434 8.54015 -11.0521 -12.2327 6 0.259151 0.00176192 0.00097298 0.259159 1.45023e-08 3.1932e-08 
5041 1 0.0425858 0.0276267 0.0245471 0.00450026 -0.0864838 -0.126816 -0.0354544 -0.66859 0.435802 0.0130514 3.04522 17.2089 -1.23449 4 0.32869 0.0070408 -0.000940575 0.328766 1.37646e-09 1.37388e-08 
5241 1 0.0645856 0.0287459 0.0261631 0.00623637 0.015268 0.0277586 0.0752381 3.70085 -11.1711 18.5482 32.8558 -13.1324 2.29041 4 0.357355 -0.000122894 -0.00042899 0.357355 2.88127e-08 9.81783e-09 
5430 1 0.031543 0.0373915 0.0265401 0.00730894 -0.114603 -0.119808 0.00172991 -2.73727 -1.46353 1.3361 4.24752 0.912301 -6.17478 6 0.310248 0.012303 -0.00688918 0.310569 2.88852e-09 6.5194e-08 
6074 1 0.0486506 0.0448846 0.019753 0.00547418 -0.156164 -0.0956158 -0.0243722 -1.22781 -1.43629 0.416417 0.737384 8.67475 15.582 4 0.24308 0.0250259 0.0143248 0.244784 3.80493e-09 3.39993e-08 
5233 1 0.0534652 0.0360436 0.0257631 0.00631299 -0.0822582 -0.0837164 0.012651 -0.344712 -0.489388 -0.191986 -8.1626 1.90764 0.110786 6 0.34372 0.00689796 -0.0135312 0.344055 1.71207e-09 2.12944e-08 
6192 1 0.0622391 0.0429666 0.0181562 0.00727148 -0.138682 -0.152384 -0.0469409 3.27678 2.52281 1.31677 24.6094 17.1842 -8.89738 7 0.229423 0.0109398 -0.0120536 0.23 4.84054e-08 1.04283e-07 
7197 1 0.0670582 0.0539156 0.0223624 0.00551296 -0.076841 -0.185248 -0.00126866 -1.40423 -1.47228 -0.796525 -0.495596 44.76 42.9461 3 0.16472 0.0227622 -0.0100743 0.166591 4.76084e-08 4.09339e-08 
6541 1 0.00865592 0.0611743 0.0236984 0.00704889 -0.0640961 0.0717243 -0.0450077 1.35571 0.375065 -2.13532 -0.178858 -14.0706 -5.18654 4 0.20878 0.0288302 0.00450111 0.210809 9.50906e-09 2.3992e-08 
6061 1 0.0321806 0.0562307 0.021421 0.00688088 -0.18409 -0.0272364 -0.0443052 -0.422389 -0.913518 0.502601 -0.491377 11.5272 16.982 7 0.191908 0.0158798 0.00154388 0.19257 1.57957e-08 7.24096e-08 
7531 1 0.0549605 0.0549096 0.0186188 0.00656684 -0.249154 -0.0602169 -0.0159541 -0.529993 -1.44176 -0.978382 15.3987 14.4431 -1.95503 5 0.154383 0.0178153 -0.00352336 0.155447 1.33375e-08 1.13448e-07 
6098 1 0.0216829 0.0659872 0.0257195 0.00678487 -0.0779811 -0.0890591 0.0372318 -1.39189 1.08378 -0.171408 14.0058 18.0873 -5.31936 7 0.18023 0.0232103 -0.00868826 0.181926 1.92689e-08 2.92125e-08 
7016 1 0.0461881 0.065863 0.0225871 0.00605574 -0.189961 -0.106897 -0.0296567 -1.26778 -0.251479 -0.0230495 -1.51234 8.94353 -11.6842 6 0.134142 0.0158674 0.00190636 0.13509 4.32903e-09 6.52726e-08 
7107 1 0.0571655 0.0642545 0.0254461 0.0054174 -0.161836 -0.116296 -0.0201186 -0.3093 0.47307 -0.226178 -9.22431 1.92953 -1.7546 6 0.139889 0.0286019 -0.000534843 0.142784 1.04169e-09 3.87432e-08 
6450 1 0.00135325 0.0750046 0.0198492 0.00674154 -0.160589 0.064124 0.0707514 -0.736487 -0.12686 0.22329 -0.761257 -20.5261 -4.83878 7 0.149806 0.0275271 0.00265914 0.152337 1.50652e-08 6.49587e-08 
7328 1 0.0152563 0.0763409 0.0186896 0.00728467 -0.0950251 -0.00424948 0.142415 0.174328 -1.25458 2.04204 -2.14294 14.858 -9.23368 4 0.137194 0.028555 -0.00134752 0.140141 1.54806e-08 6.88649e-08 
7142 1 0.0301248 0.0761349 0.0240432 0.0065509 -0.119788 -0.0182151 0.0650958 2.07563 -2.34748 -2.18695 -13.5063 -21.3686 21.6221 4 0.129993 0.0237945 0.000100429 0.132153 3.24337e-08 3.23031e-08 
7406 1 0.0472597 0.0782003 0.0222679 0.00641939 -0.190329 -0.142421 -0.0469049 -0.322629 0.783088 0.931166 -4.46525 0.569295 12.1179 6 0.124909 0.0219258 0.00466863 0.126905 4.42564e-09 9.43284e-08 
7033 1 0.0603255 0.0799749 0.0245471 0.00646444 -0.177373 -0.107926 -0.0130218 0.507996 -0.527239 0.041519 4.69793 5.34054 -2.30583 6 0.115673 0.00553797 -0.000969892 0.11581 1.53338e-09 7.10105e-08 
7151 1 0.00284481 0.0881665 0.0216878 0.00684569 -0.198799 0.0462921 0.0667234 -1.08507 -0.00122829 -0.476322 -4.04161 0.230545 7.48699 4 0.11441 0.0311874 0.0040969 0.118655 2.64605e-09 8.98583e-08 
7491 1 0.0158088 0.0891823 0.0204236 0.0056846 -0.117033 -0.0185526 -0.0556314 0 0 0 21.6245 2.3904 44.6856 0 0.113179 0.0287423 0.00531771 0.116892 3.56236e-08 1.91188e-08 
7056 1 0.037604 0.0828044 0.0186551 0.00487081 -0.228265 0.0969249 0.0766624 2.14918 -1.00928 -0.12458 3.53448 7.6058 19.3526 4 0.125244 0.025367 0.0061598 0.127935 2.96313e-09 4.72899e-08 
7027 1 0.0687189 0.0896496 0.026336 0.00657751 -0.170287 -0.124167 -0.0343515 0.554747 -0.249796 0.07538 1.23797 7.01905 -0.208488 4 0.11177 0.00954981 -2.51292e-05 0.112177 1.52075e-09 7.8806e-08 
5135 1 0.0124761 0.00733951 0.0267656 0.00600675 0.160277 -0.120116 0.0331396 2191.74 -3008.2 -5.55206 18.9002 26.0635 -6.17881 3 0.410468 -0.00304016 0.00400434 0.410499 2.04175e-08 5.42538e-08 
5050 1 0.0564 0.00369121 0.0290678 0.00534487 0.06 -2.85581e-10 2.30662e-05 -2.90432 2.31929e+06 -0.00228209 0.00503775 8.47417e-08 -13.1417 0 0.391917 -0.0110896 -0.0147261 0.39235 1.83021e-09 3.33864e-09 
5542 1 0.00225957 0.0100975 0.0282821 0.00475837 0.0197625 -0.0567313 -0.0135232 -15215.2 -28486.5 -5.89032 -39.6043 -42.5827 9.85204 3 0.407292 0.00473546 -0.000786375 0.40732 2.06179e-08 2.48133e-09 
5386 1 0.0178413 0.0176169 0.0288488 0.00567684 0.507174 -0.431983 0.221378 0 0 0 232.441 -246.446 -343.518 0 0.392754 0.0111753 -0.00704001 0.392976 3.33408e-06 5.47628e-07 
5465 1 0.0374418 0.0101977 0.035058 0.00723416 -0.0150788 -0.0314625 0.0366067 -9271.96 -16824.7 3.88527 -5.25247 6.90515 7.88199 5 0.393401 -0.00665216 0.00491646 0.393488 6.61345e-09 5.88036e-09 
5527 1 0.048276 0.0108764 0.0290142 0.00532301 -0.0114815 0.00401444 0.0148797 422.69 1704.03 61.1506 -6.16603 -6.8997 -15.4851 6 0.392756 -0.00875396 0.00304936 0.392865 3.37861e-09 3.38346e-10 
5366 1 0.0583805 0.0175372 0.0289431 0.00694209 -0.0381479 -0.0259897 -0.031164 370.65 834.98 -69.9578 6.69134 5.61089 2.41729 7 0.394879 0.00528486 -0.00265891 0.394923 3.21594e-09 6.30318e-09 
5098 1 0.0348942 0.024038 0.0324397 0.00712266 -0.0597709 -0.0883448 -0.0182387 54.2802 114.587 6.166 -7.05678 3.48175 -2.79774 7 0.36152 0.00359684 -0.00479817 0.36157 3.10641e-09 2.57004e-08 
5143 1 0.0243042 0.0277678 0.0281013 0.00497801 -0.155269 -0.0886745 0.0588712 -1.98531 -9.34419 1.53902 -2.49934 12.9711 3.53405 6 0.405867 0.0130522 -0.00810389 0.406157 1.38868e-09 2.65514e-08 
5450 1 0.0456955 0.0308525 0.0336637 0.00573557 -0.00550565 -0.125987 -0.0398104 0.10437 -1.10658 0.0298674 -8.30081 -8.49087 -5.0095 5 0.352463 0.00934885 -0.0189997 0.353098 2.50469e-09 2.00413e-08 
6481 1 0.0186138 0.0373893 0.0327328 0.00716407 -0.101767 -0.0443944 0.084087 2.36789 0.573694 0.538708 -4.60597 7.37091 -9.56905 8 0.260996 0.00778463 0.000186304 0.261112 7.66169e-09 4.33205e-08 
6389 1 0.0436875 0.043461 0.0314886 0.00727431 -0.0990896 -0.12843 0.065691 -0.431836 -0.357464 -0.998474 20.1377 1.88027 10.7646 6 0.294637 0.0227839 0.00865585 0.295644 2.59767e-08 7.16073e-08 
6199 1 0.00823258 0.0469618 0.0306738 0.00713971 -0.0571465 0.0321417 0.101058 1.76565 3.10592 -0.0961275 -6.05787 -0.187489 -2.41129 3 0.219111 0.0133872 0.000767162 0.219521 1.91774e-09 3.20783e-08 
6193 1 0.0203148 0.0526227 0.0269901 0.00674822 -0.0854493 -0.0522636 0.00178092 -0.498043 1.30209 0.335086 -9.25945 -3.1222 2.27838 8 0.221244 0.0137306 -0.0124949 0.222021 3.42288e-09 1.87325e-08 
5474 1 0.0316881 0.0531358 0.0349651 0.00706714 -0.0072897 -0.108614 0.0218072 -1.29454 -2.83433 0.915919 5.83118 6.32287 12.8307 5 0.305746 0.0387127 -0.0068035 0.308262 1.02192e-08 2.64238e-08 
7251 1 0.0588187 0.0493001 0.0290587 0.00587197 0.0177274 -0.190726 0.0303831 -2.19128 -0.428866 -0.689102 -9.4404 -6.11189 -9.37211 3 0.17726 0.0100384 -0.00159174 0.177551 3.63483e-09 4.62549e-08 
6214 1 0.0461724 0.0551333 0.0269621 0.00560333 -0.190132 -0.081695 0.0776779 0.274796 -0.343827 -0.647803 -19.2219 10.0745 2.10856 6 0.187018 0.0156103 0.00426378 0.187717 6.38009e-09 5.22074e-08 
7329 1 0.0538059 0.0587668 0.035419 0.00648325 -0.0845679 -0.161338 -0.0235551 -0.53903 1.19695 0.610985 19.2194 15.8134 -11.5438 6 0.144994 0.0162653 0.00481367 0.145983 2.09462e-08 5.58385e-08 
7158 1 0.0657648 0.0577765 0.0328398 0.00581711 -0.0829206 -0.124375 0.0202109 -0.826244 0.945078 -0.281534 -13.0865 -19.1872 18.2382 6 0.141624 0.00872912 -0.0115005 0.142358 1.4112e-08 2.72035e-08 
6234 1 0.00243083 0.0640673 0.0344747 0.00572809 -0.105053 0.0321799 0.0551659 0.515203 -0.0375091 0.198572 15.1626 -4.15951 7.66013 6 0.170667 0.0181585 0.00725915 0.171784 4.5827e-09 1.72542e-08 
7534 1 0.0368421 0.0644964 0.0302733 0.00621207 -0.174419 -0.0566954 -0.0132628 -1.4746 -0.581101 -0.190253 13.3692 0.918078 -7.60909 4 0.166615 0.0254298 0.0036458 0.168584 5.33727e-09 4.9231e-08 
7118 1 0.0657848 0.069729 0.031125 0.00639178 -0.155594 -0.132623 -0.0644542 0.972228 0.529236 0.741747 1.89462 -0.894692 -2.08792 6 0.134733 0.0135529 0.00417644 0.135477 2.26782e-10 7.28843e-08 
7222 1 0.00799783 0.0721654 0.0294818 0.00535916 -0.166427 0.0134851 0.0524623 -0.547746 0.31953 -0.201412 -3.05274 27.1127 -17.7008 5 0.142167 0.0258278 0.0120712 0.144998 1.13599e-08 2.86368e-08 
7477 1 0.0188986 0.0779055 0.0329182 0.00747117 -0.0822218 -0.0501333 -0.00219811 0.444218 -0.370434 2.53017 -20.0763 -18.2251 0.376791 6 0.13097 0.0269764 0.00238971 0.133741 4.1587e-08 2.3502e-08 
7260 1 0.0299323 0.0722987 0.0350316 0.00512529 -0.0795749 -0.0738336 0.05006 -0.0961948 -0.0664674 -0.197741 21.0157 21.364 1.91123 5 0.130446 0.0243691 0.00034269 0.132703 7.74795e-09 1.16851e-08 
7544 1 0.0402346 0.0761772 0.0325451 0.00623332 -0.118012 -0.0896789 -0.00996268 0.763867 0.268707 0.0110357 -9.59049 3.78393 -4.88819 5 0.120061 0.0134621 0.00431072 0.12089 2.9764e-09 3.24628e-08 
7272 1 0.0529518 0.0728662 0.0330826 0.00699705 -0.137204 -0.11706 -0.0327806 1.69923 -0.257444 0.883842 3.7228 2.41552 0.491833 9 0.133063 0.0228467 0.00141949 0.135017 8.12317e-10 6.99156e-08 
7071 1 0.00670941 0.0824109 0.0313591 0.00514939 -0.119717 0.0248052 0.0548239 -0.402025 0.638079 0.172307 11.1765 9.00561 3.87876 4 0.129836 0.0255062 0.001687 0.132328 1.94449e-09 1.4889e-08 
7057 1 0.0251803 0.0878215 0.0267416 0.00566692 -0.0235719 -0.046158 -0.239539 0 0 0 12.9038 36.4764 -7.01626 0 0.116124 0.0272865 0.00196856 0.119303 2.19552e-08 6.63927e-08 
7288 1 0.0362625 0.0874557 0.0277254 0.00538767 0.533796 0.253328 -0.861925 0 0 0 -110.153 -57.8505 -60.5136 0 0.110768 0.0196024 0.00839942 0.112802 2.11114e-07 1.03728e-06 
7332 1 0.0474745 0.0888479 0.0281465 0.00588815 -0.0589075 -0.169147 -0.0814737 1.2643 0.69674 0.440773 6.1266 12.2262 -31.33 4 0.117092 0.0178581 0.0193269 0.120013 2.00943e-08 4.80083e-08 
5429 1 0.0133355 0.00879713 0.0395196 0.00688167 -0.108994 0.0252018 -0.0539937 1572.44 -2755.86 2.9158 -7.63707 -44.8332 10.382 3 0.417939 0.000858719 -0.00889354 0.418034 8.15965e-08 3.05428e-08 
5059 1 0.0264 0.00369487 0.0396644 0.00515272 0.06 3.45608e-11 1.97884e-05 -2.77266 1.88553e+06 -0.00187398 0.00441591 8.63127e-08 -13.4286 0 0.361227 -0.0249627 -0.00143874 0.362091 1.59132e-09 2.99135e-09 
5042 1 0.0244163 0.015082 0.0380363 0.00584075 -1.02764 0.222326 2.05524 0 0 0 -977.688 120.678 -675.879 0 0.3363 -0.00512318 -0.00434649 0.336367 2.35699e-05 6.44983e-06 
5240 1 0.0538497 0.0129495 0.0412794 0.00471501 -0.0393001 -0.0567064 0.0500082 259.006 1140.8 -10.6519 15.0788 10.8006 22.0993 4 0.395394 0.00580617 -0.000181021 0.395437 4.71263e-09 4.62273e-09 
5049 1 0.0636414 0.010569 0.0382701 0.00591678 -0.070446 -0.00579629 0.0195333 -35030.5 -65479.2 33.1199 -10.9164 2.50934 -3.4354 6 0.384547 0.000768663 0.00578644 0.384591 2.41828e-09 6.76575e-09 
5357 1 0.0100293 0.0222632 0.0366013 0.00622049 -0.0124364 -0.0467292 0.199194 -4.3887 -30.3832 -12.6259 -7.04133 -4.46409 7.72715 5 0.32455 -0.00649527 0.002197 0.324623 2.92389e-09 6.1426e-08 
5231 1 0.0203549 0.0261399 0.0369484 0.00505166 -0.057396 -0.0896962 0.146633 -1.46463 4.60951 -1.95739 8.22942 17.4812 -16.37 4 0.404113 0.0157569 -0.00800321 0.404499 5.12558e-09 2.57142e-08 
6409 1 0.0411086 0.0268119 0.0443058 0.00662049 -0.0979499 -0.080494 -0.0362693 -2.69548 -26.0176 -4.29364 5.31649 -2.02931 -7.33842 8 0.30728 0.00458165 -0.0113495 0.307523 2.66473e-09 3.06478e-08 
5218 1 0.0472054 0.0194917 0.036153 0.00595861 -0.0378495 -0.0617334 0.0454092 -18.9898 -10.4105 -21.3403 0.818859 -29.9694 -8.5584 3 0.369802 0.00222709 -0.0130138 0.370038 1.77397e-08 9.38743e-09 
5274 1 0.00695151 0.0340503 0.0376082 0.00609343 -0.0922076 0.00662302 0.0517895 -0.157907 0.222283 -1.1142 -19.0768 -10.4244 17.7502 7 0.312729 0.00187929 -0.00474391 0.31277 1.60756e-08 1.54296e-08 
5075 1 0.0312108 0.0336106 0.038465 0.0047907 -0.101882 -0.11512 -0.030959 2.8465 -4.33218 0.690309 8.28253 -33.5121 8.5112 4 0.327547 0.0149135 -0.01436 0.328201 7.74988e-09 1.64222e-08 
5150 1 0.0571182 0.0299527 0.0356514 0.00594984 -0.0479533 -0.0721983 0.0238439 -0.352189 -1.30707 -1.46586 -4.37926 -0.0974347 6.90412 5 0.365088 0.0194899 -0.0205397 0.366184 1.21108e-09 1.03376e-08 
6121 1 0.0103784 0.0435081 0.0429475 0.00545478 -0.104793 0.0350731 -0.00394458 -0.0180191 0.685702 -2.43119 4.83617 -13.5168 -26.864 4 0.274004 0.0218922 -0.000279979 0.274877 1.08853e-08 1.20536e-08 
5405 1 0.0283468 0.0422822 0.0368164 0.00452251 -0.0198986 -0.135631 -0.0136682 -0.549905 0.480589 0.425963 1.75775 5.01844 -19.9943 5 0.314271 0.0237607 -0.00349104 0.315187 1.96745e-09 1.06625e-08 
6429 1 0.0552988 0.0412499 0.0362225 0.00554809 -0.0905987 -0.113468 0.0289484 0.179601 0.0536739 -0.398154 5.0652 -2.95334 -7.36496 6 0.232834 0.00434625 0.0116598 0.233166 1.13181e-09 2.27378e-08 
7086 1 0.0657869 0.0439055 0.0379274 0.00548049 -0.0577269 -0.147283 -0.0363836 -0.451197 0.489617 0.949755 -2.62529 22.1305 0.00724624 5 0.18684 0.0221388 -0.00689403 0.188273 5.96577e-09 2.63434e-08 
6298 1 0.0197616 0.0488168 0.0390833 0.00606473 0.00448043 -0.0910285 0.0523493 0.352542 0.00834468 0.134715 11.1674 13.5695 12.6186 4 0.235059 0.0224375 -0.0118934 0.236427 9.33005e-09 1.49667e-08 
6221 1 0.0492406 0.0493023 0.0416103 0.00572218 -0.0577716 -0.200737 0.0465806 0.721735 -1.21409 0.211282 -15.6436 13.0491 -10.2726 4 0.184459 0.00516089 0.00572897 0.18462 7.75831e-09 5.21233e-08 
7109 1 0.0630592 0.0528802 0.0415157 0.00460826 -0.0256774 -0.171825 -0.0119556 -0.687341 0.741501 0.240084 10.7649 9.3815 8.24665 5 0.160262 0.0141463 0.00238928 0.160903 1.37283e-09 1.80254e-08 
6448 1 0.00380545 0.054071 0.0422943 0.00706541 -0.0317304 -0.0212712 -0.0160165 1.35522 1.47388 0.765646 3.45297 3.40849 6.27846 7 0.232022 0.0333153 0.00415864 0.234438 2.6932e-09 3.67569e-09 
6241 1 0.0145595 0.0607553 0.0363542 0.00704256 -0.0639167 -0.0455283 -0.0333528 0.883053 0.159998 -0.218675 10.4987 9.73513 -12.5752 7 0.163103 0.0173608 -0.0075117 0.164196 1.52839e-08 1.54247e-08 
6134 1 0.0428515 0.0563908 0.0365546 0.00473093 -0.0502833 -0.0723535 0.0454144 0.338965 -0.546676 0.0432306 22.3614 8.31811 -7.07091 4 0.223735 0.0203645 0.000862551 0.224662 3.5653e-09 6.31931e-09 
7212 1 0.0102286 0.0718299 0.0396786 0.00513128 -0.0232759 -0.0402487 -0.00746473 -0.675599 0.341944 0.056378 8.15322 8.26026 17.9501 4 0.141125 0.0214546 0.01151 0.14321 3.94892e-09 1.81965e-09 